+ 0 0 1 tcp 40 ------- 2 0.0 2.0 0 0
- 0 0 1 tcp 40 ------- 2 0.0 2.0 0 0
r 0.01004 0 1 tcp 40 ------- 2 0.0 2.0 0 0
+ 0.01004 1 2 tcp 40 ------- 2 0.0 2.0 0 0
- 0.01004 1 2 tcp 40 ------- 2 0.0 2.0 0 0
r 0.11044 1 2 tcp 40 ------- 2 0.0 2.0 0 0
+ 0.11044 2 1 ack 40 ------- 2 2.0 0.0 0 1
- 0.11044 2 1 ack 40 ------- 2 2.0 0.0 0 1
r 0.21084 2 1 ack 40 ------- 2 2.0 0.0 0 1
+ 0.21084 1 0 ack 40 ------- 2 2.0 0.0 0 1
- 0.21084 1 0 ack 40 ------- 2 2.0 0.0 0 1
r 0.22088 1 0 ack 40 ------- 2 2.0 0.0 0 1
+ 0.22088 0 1 tcp 1040 ------- 2 0.0 2.0 1 2
- 0.22088 0 1 tcp 1040 ------- 2 0.0 2.0 1 2
+ 0.22088 0 1 tcp 1040 ------- 2 0.0 2.0 2 3
- 0.22192 0 1 tcp 1040 ------- 2 0.0 2.0 2 3
r 0.23192 0 1 tcp 1040 ------- 2 0.0 2.0 1 2
+ 0.23192 1 2 tcp 1040 ------- 2 0.0 2.0 1 2
- 0.23192 1 2 tcp 1040 ------- 2 0.0 2.0 1 2
r 0.23296 0 1 tcp 1040 ------- 2 0.0 2.0 2 3
+ 0.23296 1 2 tcp 1040 ------- 2 0.0 2.0 2 3
- 0.24232 1 2 tcp 1040 ------- 2 0.0 2.0 2 3
r 0.34232 1 2 tcp 1040 ------- 2 0.0 2.0 1 2
+ 0.34232 2 1 ack 40 ------- 2 2.0 0.0 1 4
- 0.34232 2 1 ack 40 ------- 2 2.0 0.0 1 4
r 0.35272 1 2 tcp 1040 ------- 2 0.0 2.0 2 3
+ 0.35272 2 1 ack 40 ------- 2 2.0 0.0 2 5
- 0.35272 2 1 ack 40 ------- 2 2.0 0.0 2 5
r 0.44272 2 1 ack 40 ------- 2 2.0 0.0 1 4
+ 0.44272 1 0 ack 40 ------- 2 2.0 0.0 1 4
- 0.44272 1 0 ack 40 ------- 2 2.0 0.0 1 4
r 0.45276 1 0 ack 40 ------- 2 2.0 0.0 1 4
+ 0.45276 0 1 tcp 1040 ------- 2 0.0 2.0 3 6
- 0.45276 0 1 tcp 1040 ------- 2 0.0 2.0 3 6
+ 0.45276 0 1 tcp 1040 ------- 2 0.0 2.0 4 7
r 0.45312 2 1 ack 40 ------- 2 2.0 0.0 2 5
+ 0.45312 1 0 ack 40 ------- 2 2.0 0.0 2 5
- 0.45312 1 0 ack 40 ------- 2 2.0 0.0 2 5
- 0.4538 0 1 tcp 1040 ------- 2 0.0 2.0 4 7
r 0.46316 1 0 ack 40 ------- 2 2.0 0.0 2 5
+ 0.46316 0 1 tcp 1040 ------- 2 0.0 2.0 5 8
- 0.46316 0 1 tcp 1040 ------- 2 0.0 2.0 5 8
+ 0.46316 0 1 tcp 1040 ------- 2 0.0 2.0 6 9
r 0.4638 0 1 tcp 1040 ------- 2 0.0 2.0 3 6
+ 0.4638 1 2 tcp 1040 ------- 2 0.0 2.0 3 6
- 0.4638 1 2 tcp 1040 ------- 2 0.0 2.0 3 6
- 0.4642 0 1 tcp 1040 ------- 2 0.0 2.0 6 9
r 0.46484 0 1 tcp 1040 ------- 2 0.0 2.0 4 7
+ 0.46484 1 2 tcp 1040 ------- 2 0.0 2.0 4 7
r 0.4742 0 1 tcp 1040 ------- 2 0.0 2.0 5 8
+ 0.4742 1 2 tcp 1040 ------- 2 0.0 2.0 5 8
- 0.4742 1 2 tcp 1040 ------- 2 0.0 2.0 4 7
r 0.47524 0 1 tcp 1040 ------- 2 0.0 2.0 6 9
+ 0.47524 1 2 tcp 1040 ------- 2 0.0 2.0 6 9
- 0.4846 1 2 tcp 1040 ------- 2 0.0 2.0 5 8
- 0.495 1 2 tcp 1040 ------- 2 0.0 2.0 6 9
r 0.5742 1 2 tcp 1040 ------- 2 0.0 2.0 3 6
+ 0.5742 2 1 ack 40 ------- 2 2.0 0.0 3 10
- 0.5742 2 1 ack 40 ------- 2 2.0 0.0 3 10
r 0.5846 1 2 tcp 1040 ------- 2 0.0 2.0 4 7
+ 0.5846 2 1 ack 40 ------- 2 2.0 0.0 4 11
- 0.5846 2 1 ack 40 ------- 2 2.0 0.0 4 11
r 0.595 1 2 tcp 1040 ------- 2 0.0 2.0 5 8
+ 0.595 2 1 ack 40 ------- 2 2.0 0.0 5 12
- 0.595 2 1 ack 40 ------- 2 2.0 0.0 5 12
r 0.6054 1 2 tcp 1040 ------- 2 0.0 2.0 6 9
+ 0.6054 2 1 ack 40 ------- 2 2.0 0.0 6 13
- 0.6054 2 1 ack 40 ------- 2 2.0 0.0 6 13
r 0.6746 2 1 ack 40 ------- 2 2.0 0.0 3 10
+ 0.6746 1 0 ack 40 ------- 2 2.0 0.0 3 10
- 0.6746 1 0 ack 40 ------- 2 2.0 0.0 3 10
r 0.68464 1 0 ack 40 ------- 2 2.0 0.0 3 10
+ 0.68464 0 1 tcp 1040 ------- 2 0.0 2.0 7 14
- 0.68464 0 1 tcp 1040 ------- 2 0.0 2.0 7 14
+ 0.68464 0 1 tcp 1040 ------- 2 0.0 2.0 8 15
r 0.685 2 1 ack 40 ------- 2 2.0 0.0 4 11
+ 0.685 1 0 ack 40 ------- 2 2.0 0.0 4 11
- 0.685 1 0 ack 40 ------- 2 2.0 0.0 4 11
- 0.68568 0 1 tcp 1040 ------- 2 0.0 2.0 8 15
r 0.69504 1 0 ack 40 ------- 2 2.0 0.0 4 11
+ 0.69504 0 1 tcp 1040 ------- 2 0.0 2.0 9 16
- 0.69504 0 1 tcp 1040 ------- 2 0.0 2.0 9 16
+ 0.69504 0 1 tcp 1040 ------- 2 0.0 2.0 10 17
r 0.6954 2 1 ack 40 ------- 2 2.0 0.0 5 12
+ 0.6954 1 0 ack 40 ------- 2 2.0 0.0 5 12
- 0.6954 1 0 ack 40 ------- 2 2.0 0.0 5 12
r 0.69568 0 1 tcp 1040 ------- 2 0.0 2.0 7 14
+ 0.69568 1 2 tcp 1040 ------- 2 0.0 2.0 7 14
- 0.69568 1 2 tcp 1040 ------- 2 0.0 2.0 7 14
- 0.69608 0 1 tcp 1040 ------- 2 0.0 2.0 10 17
r 0.69672 0 1 tcp 1040 ------- 2 0.0 2.0 8 15
+ 0.69672 1 2 tcp 1040 ------- 2 0.0 2.0 8 15
r 0.70544 1 0 ack 40 ------- 2 2.0 0.0 5 12
+ 0.70544 0 1 tcp 1040 ------- 2 0.0 2.0 11 18
- 0.70544 0 1 tcp 1040 ------- 2 0.0 2.0 11 18
+ 0.70544 0 1 tcp 1040 ------- 2 0.0 2.0 12 19
r 0.7058 2 1 ack 40 ------- 2 2.0 0.0 6 13
+ 0.7058 1 0 ack 40 ------- 2 2.0 0.0 6 13
- 0.7058 1 0 ack 40 ------- 2 2.0 0.0 6 13
r 0.70608 0 1 tcp 1040 ------- 2 0.0 2.0 9 16
+ 0.70608 1 2 tcp 1040 ------- 2 0.0 2.0 9 16
- 0.70608 1 2 tcp 1040 ------- 2 0.0 2.0 8 15
- 0.70648 0 1 tcp 1040 ------- 2 0.0 2.0 12 19
r 0.70712 0 1 tcp 1040 ------- 2 0.0 2.0 10 17
+ 0.70712 1 2 tcp 1040 ------- 2 0.0 2.0 10 17
r 0.71584 1 0 ack 40 ------- 2 2.0 0.0 6 13
+ 0.71584 0 1 tcp 1040 ------- 2 0.0 2.0 13 20
- 0.71584 0 1 tcp 1040 ------- 2 0.0 2.0 13 20
+ 0.71584 0 1 tcp 1040 ------- 2 0.0 2.0 14 21
r 0.71648 0 1 tcp 1040 ------- 2 0.0 2.0 11 18
+ 0.71648 1 2 tcp 1040 ------- 2 0.0 2.0 11 18
- 0.71648 1 2 tcp 1040 ------- 2 0.0 2.0 9 16
- 0.71688 0 1 tcp 1040 ------- 2 0.0 2.0 14 21
r 0.71752 0 1 tcp 1040 ------- 2 0.0 2.0 12 19
+ 0.71752 1 2 tcp 1040 ------- 2 0.0 2.0 12 19
- 0.72688 1 2 tcp 1040 ------- 2 0.0 2.0 10 17
r 0.72688 0 1 tcp 1040 ------- 2 0.0 2.0 13 20
+ 0.72688 1 2 tcp 1040 ------- 2 0.0 2.0 13 20
r 0.72792 0 1 tcp 1040 ------- 2 0.0 2.0 14 21
+ 0.72792 1 2 tcp 1040 ------- 2 0.0 2.0 14 21
- 0.73728 1 2 tcp 1040 ------- 2 0.0 2.0 11 18
- 0.74768 1 2 tcp 1040 ------- 2 0.0 2.0 12 19
- 0.75808 1 2 tcp 1040 ------- 2 0.0 2.0 13 20
- 0.76848 1 2 tcp 1040 ------- 2 0.0 2.0 14 21
r 0.80608 1 2 tcp 1040 ------- 2 0.0 2.0 7 14
+ 0.80608 2 1 ack 40 ------- 2 2.0 0.0 7 22
- 0.80608 2 1 ack 40 ------- 2 2.0 0.0 7 22
r 0.81648 1 2 tcp 1040 ------- 2 0.0 2.0 8 15
+ 0.81648 2 1 ack 40 ------- 2 2.0 0.0 8 23
- 0.81648 2 1 ack 40 ------- 2 2.0 0.0 8 23
r 0.82688 1 2 tcp 1040 ------- 2 0.0 2.0 9 16
+ 0.82688 2 1 ack 40 ------- 2 2.0 0.0 9 24
- 0.82688 2 1 ack 40 ------- 2 2.0 0.0 9 24
r 0.83728 1 2 tcp 1040 ------- 2 0.0 2.0 10 17
+ 0.83728 2 1 ack 40 ------- 2 2.0 0.0 10 25
- 0.83728 2 1 ack 40 ------- 2 2.0 0.0 10 25
r 0.84768 1 2 tcp 1040 ------- 2 0.0 2.0 11 18
+ 0.84768 2 1 ack 40 ------- 2 2.0 0.0 11 26
- 0.84768 2 1 ack 40 ------- 2 2.0 0.0 11 26
r 0.85808 1 2 tcp 1040 ------- 2 0.0 2.0 12 19
+ 0.85808 2 1 ack 40 ------- 2 2.0 0.0 12 27
- 0.85808 2 1 ack 40 ------- 2 2.0 0.0 12 27
r 0.86848 1 2 tcp 1040 ------- 2 0.0 2.0 13 20
+ 0.86848 2 1 ack 40 ------- 2 2.0 0.0 13 28
- 0.86848 2 1 ack 40 ------- 2 2.0 0.0 13 28
r 0.87888 1 2 tcp 1040 ------- 2 0.0 2.0 14 21
+ 0.87888 2 1 ack 40 ------- 2 2.0 0.0 14 29
- 0.87888 2 1 ack 40 ------- 2 2.0 0.0 14 29
r 0.90648 2 1 ack 40 ------- 2 2.0 0.0 7 22
+ 0.90648 1 0 ack 40 ------- 2 2.0 0.0 7 22
- 0.90648 1 0 ack 40 ------- 2 2.0 0.0 7 22
r 0.91652 1 0 ack 40 ------- 2 2.0 0.0 7 22
+ 0.91652 0 1 tcp 1040 ------- 2 0.0 2.0 15 30
- 0.91652 0 1 tcp 1040 ------- 2 0.0 2.0 15 30
+ 0.91652 0 1 tcp 1040 ------- 2 0.0 2.0 16 31
r 0.91688 2 1 ack 40 ------- 2 2.0 0.0 8 23
+ 0.91688 1 0 ack 40 ------- 2 2.0 0.0 8 23
- 0.91688 1 0 ack 40 ------- 2 2.0 0.0 8 23
- 0.91756 0 1 tcp 1040 ------- 2 0.0 2.0 16 31
r 0.92692 1 0 ack 40 ------- 2 2.0 0.0 8 23
+ 0.92692 0 1 tcp 1040 ------- 2 0.0 2.0 17 32
- 0.92692 0 1 tcp 1040 ------- 2 0.0 2.0 17 32
+ 0.92692 0 1 tcp 1040 ------- 2 0.0 2.0 18 33
r 0.92728 2 1 ack 40 ------- 2 2.0 0.0 9 24
+ 0.92728 1 0 ack 40 ------- 2 2.0 0.0 9 24
- 0.92728 1 0 ack 40 ------- 2 2.0 0.0 9 24
r 0.92756 0 1 tcp 1040 ------- 2 0.0 2.0 15 30
+ 0.92756 1 2 tcp 1040 ------- 2 0.0 2.0 15 30
- 0.92756 1 2 tcp 1040 ------- 2 0.0 2.0 15 30
- 0.92796 0 1 tcp 1040 ------- 2 0.0 2.0 18 33
r 0.9286 0 1 tcp 1040 ------- 2 0.0 2.0 16 31
+ 0.9286 1 2 tcp 1040 ------- 2 0.0 2.0 16 31
r 0.93732 1 0 ack 40 ------- 2 2.0 0.0 9 24
+ 0.93732 0 1 tcp 1040 ------- 2 0.0 2.0 19 34
- 0.93732 0 1 tcp 1040 ------- 2 0.0 2.0 19 34
+ 0.93732 0 1 tcp 1040 ------- 2 0.0 2.0 20 35
r 0.93768 2 1 ack 40 ------- 2 2.0 0.0 10 25
+ 0.93768 1 0 ack 40 ------- 2 2.0 0.0 10 25
- 0.93768 1 0 ack 40 ------- 2 2.0 0.0 10 25
r 0.93796 0 1 tcp 1040 ------- 2 0.0 2.0 17 32
+ 0.93796 1 2 tcp 1040 ------- 2 0.0 2.0 17 32
- 0.93796 1 2 tcp 1040 ------- 2 0.0 2.0 16 31
- 0.93836 0 1 tcp 1040 ------- 2 0.0 2.0 20 35
r 0.939 0 1 tcp 1040 ------- 2 0.0 2.0 18 33
+ 0.939 1 2 tcp 1040 ------- 2 0.0 2.0 18 33
r 0.94772 1 0 ack 40 ------- 2 2.0 0.0 10 25
+ 0.94772 0 1 tcp 1040 ------- 2 0.0 2.0 21 36
- 0.94772 0 1 tcp 1040 ------- 2 0.0 2.0 21 36
+ 0.94772 0 1 tcp 1040 ------- 2 0.0 2.0 22 37
r 0.94808 2 1 ack 40 ------- 2 2.0 0.0 11 26
+ 0.94808 1 0 ack 40 ------- 2 2.0 0.0 11 26
- 0.94808 1 0 ack 40 ------- 2 2.0 0.0 11 26
r 0.94836 0 1 tcp 1040 ------- 2 0.0 2.0 19 34
+ 0.94836 1 2 tcp 1040 ------- 2 0.0 2.0 19 34
- 0.94836 1 2 tcp 1040 ------- 2 0.0 2.0 17 32
- 0.94876 0 1 tcp 1040 ------- 2 0.0 2.0 22 37
r 0.9494 0 1 tcp 1040 ------- 2 0.0 2.0 20 35
+ 0.9494 1 2 tcp 1040 ------- 2 0.0 2.0 20 35
r 0.95812 1 0 ack 40 ------- 2 2.0 0.0 11 26
+ 0.95812 0 1 tcp 1040 ------- 2 0.0 2.0 23 38
- 0.95812 0 1 tcp 1040 ------- 2 0.0 2.0 23 38
+ 0.95812 0 1 tcp 1040 ------- 2 0.0 2.0 24 39
r 0.95848 2 1 ack 40 ------- 2 2.0 0.0 12 27
+ 0.95848 1 0 ack 40 ------- 2 2.0 0.0 12 27
- 0.95848 1 0 ack 40 ------- 2 2.0 0.0 12 27
r 0.95876 0 1 tcp 1040 ------- 2 0.0 2.0 21 36
+ 0.95876 1 2 tcp 1040 ------- 2 0.0 2.0 21 36
- 0.95876 1 2 tcp 1040 ------- 2 0.0 2.0 18 33
- 0.95916 0 1 tcp 1040 ------- 2 0.0 2.0 24 39
r 0.9598 0 1 tcp 1040 ------- 2 0.0 2.0 22 37
+ 0.9598 1 2 tcp 1040 ------- 2 0.0 2.0 22 37
r 0.96852 1 0 ack 40 ------- 2 2.0 0.0 12 27
+ 0.96852 0 1 tcp 1040 ------- 2 0.0 2.0 25 40
- 0.96852 0 1 tcp 1040 ------- 2 0.0 2.0 25 40
+ 0.96852 0 1 tcp 1040 ------- 2 0.0 2.0 26 41
r 0.96888 2 1 ack 40 ------- 2 2.0 0.0 13 28
+ 0.96888 1 0 ack 40 ------- 2 2.0 0.0 13 28
- 0.96888 1 0 ack 40 ------- 2 2.0 0.0 13 28
r 0.96916 0 1 tcp 1040 ------- 2 0.0 2.0 23 38
+ 0.96916 1 2 tcp 1040 ------- 2 0.0 2.0 23 38
- 0.96916 1 2 tcp 1040 ------- 2 0.0 2.0 19 34
- 0.96956 0 1 tcp 1040 ------- 2 0.0 2.0 26 41
r 0.9702 0 1 tcp 1040 ------- 2 0.0 2.0 24 39
+ 0.9702 1 2 tcp 1040 ------- 2 0.0 2.0 24 39
r 0.97892 1 0 ack 40 ------- 2 2.0 0.0 13 28
+ 0.97892 0 1 tcp 1040 ------- 2 0.0 2.0 27 42
- 0.97892 0 1 tcp 1040 ------- 2 0.0 2.0 27 42
+ 0.97892 0 1 tcp 1040 ------- 2 0.0 2.0 28 43
r 0.97928 2 1 ack 40 ------- 2 2.0 0.0 14 29
+ 0.97928 1 0 ack 40 ------- 2 2.0 0.0 14 29
- 0.97928 1 0 ack 40 ------- 2 2.0 0.0 14 29
r 0.97956 0 1 tcp 1040 ------- 2 0.0 2.0 25 40
+ 0.97956 1 2 tcp 1040 ------- 2 0.0 2.0 25 40
- 0.97956 1 2 tcp 1040 ------- 2 0.0 2.0 20 35
- 0.97996 0 1 tcp 1040 ------- 2 0.0 2.0 28 43
r 0.9806 0 1 tcp 1040 ------- 2 0.0 2.0 26 41
+ 0.9806 1 2 tcp 1040 ------- 2 0.0 2.0 26 41
r 0.98932 1 0 ack 40 ------- 2 2.0 0.0 14 29
+ 0.98932 0 1 tcp 1040 ------- 2 0.0 2.0 29 44
- 0.98932 0 1 tcp 1040 ------- 2 0.0 2.0 29 44
+ 0.98932 0 1 tcp 1040 ------- 2 0.0 2.0 30 45
r 0.98996 0 1 tcp 1040 ------- 2 0.0 2.0 27 42
+ 0.98996 1 2 tcp 1040 ------- 2 0.0 2.0 27 42
- 0.98996 1 2 tcp 1040 ------- 2 0.0 2.0 21 36
- 0.99036 0 1 tcp 1040 ------- 2 0.0 2.0 30 45
r 0.991 0 1 tcp 1040 ------- 2 0.0 2.0 28 43
+ 0.991 1 2 tcp 1040 ------- 2 0.0 2.0 28 43
r 1.00036 0 1 tcp 1040 ------- 2 0.0 2.0 29 44
+ 1.00036 1 2 tcp 1040 ------- 2 0.0 2.0 29 44
- 1.00036 1 2 tcp 1040 ------- 2 0.0 2.0 22 37
r 1.0014 0 1 tcp 1040 ------- 2 0.0 2.0 30 45
+ 1.0014 1 2 tcp 1040 ------- 2 0.0 2.0 30 45
- 1.01076 1 2 tcp 1040 ------- 2 0.0 2.0 23 38
- 1.02116 1 2 tcp 1040 ------- 2 0.0 2.0 24 39
- 1.03156 1 2 tcp 1040 ------- 2 0.0 2.0 25 40
r 1.03796 1 2 tcp 1040 ------- 2 0.0 2.0 15 30
+ 1.03796 2 1 ack 40 ------- 2 2.0 0.0 15 46
- 1.03796 2 1 ack 40 ------- 2 2.0 0.0 15 46
- 1.04196 1 2 tcp 1040 ------- 2 0.0 2.0 26 41
r 1.04836 1 2 tcp 1040 ------- 2 0.0 2.0 16 31
+ 1.04836 2 1 ack 40 ------- 2 2.0 0.0 16 47
- 1.04836 2 1 ack 40 ------- 2 2.0 0.0 16 47
- 1.05236 1 2 tcp 1040 ------- 2 0.0 2.0 27 42
r 1.05876 1 2 tcp 1040 ------- 2 0.0 2.0 17 32
+ 1.05876 2 1 ack 40 ------- 2 2.0 0.0 17 48
- 1.05876 2 1 ack 40 ------- 2 2.0 0.0 17 48
- 1.06276 1 2 tcp 1040 ------- 2 0.0 2.0 28 43
r 1.06916 1 2 tcp 1040 ------- 2 0.0 2.0 18 33
+ 1.06916 2 1 ack 40 ------- 2 2.0 0.0 18 49
- 1.06916 2 1 ack 40 ------- 2 2.0 0.0 18 49
- 1.07316 1 2 tcp 1040 ------- 2 0.0 2.0 29 44
r 1.07956 1 2 tcp 1040 ------- 2 0.0 2.0 19 34
+ 1.07956 2 1 ack 40 ------- 2 2.0 0.0 19 50
- 1.07956 2 1 ack 40 ------- 2 2.0 0.0 19 50
- 1.08356 1 2 tcp 1040 ------- 2 0.0 2.0 30 45
r 1.08996 1 2 tcp 1040 ------- 2 0.0 2.0 20 35
+ 1.08996 2 1 ack 40 ------- 2 2.0 0.0 20 51
- 1.08996 2 1 ack 40 ------- 2 2.0 0.0 20 51
r 1.10036 1 2 tcp 1040 ------- 2 0.0 2.0 21 36
+ 1.10036 2 1 ack 40 ------- 2 2.0 0.0 21 52
- 1.10036 2 1 ack 40 ------- 2 2.0 0.0 21 52
r 1.11076 1 2 tcp 1040 ------- 2 0.0 2.0 22 37
+ 1.11076 2 1 ack 40 ------- 2 2.0 0.0 22 53
- 1.11076 2 1 ack 40 ------- 2 2.0 0.0 22 53
r 1.12116 1 2 tcp 1040 ------- 2 0.0 2.0 23 38
+ 1.12116 2 1 ack 40 ------- 2 2.0 0.0 23 54
- 1.12116 2 1 ack 40 ------- 2 2.0 0.0 23 54
r 1.13156 1 2 tcp 1040 ------- 2 0.0 2.0 24 39
+ 1.13156 2 1 ack 40 ------- 2 2.0 0.0 24 55
- 1.13156 2 1 ack 40 ------- 2 2.0 0.0 24 55
r 1.13836 2 1 ack 40 ------- 2 2.0 0.0 15 46
+ 1.13836 1 0 ack 40 ------- 2 2.0 0.0 15 46
- 1.13836 1 0 ack 40 ------- 2 2.0 0.0 15 46
r 1.14196 1 2 tcp 1040 ------- 2 0.0 2.0 25 40
+ 1.14196 2 1 ack 40 ------- 2 2.0 0.0 25 56
- 1.14196 2 1 ack 40 ------- 2 2.0 0.0 25 56
r 1.1484 1 0 ack 40 ------- 2 2.0 0.0 15 46
+ 1.1484 0 1 tcp 1040 ------- 2 0.0 2.0 31 57
- 1.1484 0 1 tcp 1040 ------- 2 0.0 2.0 31 57
r 1.14876 2 1 ack 40 ------- 2 2.0 0.0 16 47
+ 1.14876 1 0 ack 40 ------- 2 2.0 0.0 16 47
- 1.14876 1 0 ack 40 ------- 2 2.0 0.0 16 47
r 1.15236 1 2 tcp 1040 ------- 2 0.0 2.0 26 41
+ 1.15236 2 1 ack 40 ------- 2 2.0 0.0 26 58
- 1.15236 2 1 ack 40 ------- 2 2.0 0.0 26 58
r 1.1588 1 0 ack 40 ------- 2 2.0 0.0 16 47
+ 1.1588 0 1 tcp 1040 ------- 2 0.0 2.0 32 59
- 1.1588 0 1 tcp 1040 ------- 2 0.0 2.0 32 59
r 1.15916 2 1 ack 40 ------- 2 2.0 0.0 17 48
+ 1.15916 1 0 ack 40 ------- 2 2.0 0.0 17 48
- 1.15916 1 0 ack 40 ------- 2 2.0 0.0 17 48
r 1.15944 0 1 tcp 1040 ------- 2 0.0 2.0 31 57
+ 1.15944 1 2 tcp 1040 ------- 2 0.0 2.0 31 57
- 1.15944 1 2 tcp 1040 ------- 2 0.0 2.0 31 57
r 1.16276 1 2 tcp 1040 ------- 2 0.0 2.0 27 42
+ 1.16276 2 1 ack 40 ------- 2 2.0 0.0 27 60
- 1.16276 2 1 ack 40 ------- 2 2.0 0.0 27 60
r 1.1692 1 0 ack 40 ------- 2 2.0 0.0 17 48
+ 1.1692 0 1 tcp 1040 ------- 2 0.0 2.0 33 61
- 1.1692 0 1 tcp 1040 ------- 2 0.0 2.0 33 61
r 1.16956 2 1 ack 40 ------- 2 2.0 0.0 18 49
+ 1.16956 1 0 ack 40 ------- 2 2.0 0.0 18 49
- 1.16956 1 0 ack 40 ------- 2 2.0 0.0 18 49
r 1.16984 0 1 tcp 1040 ------- 2 0.0 2.0 32 59
+ 1.16984 1 2 tcp 1040 ------- 2 0.0 2.0 32 59
- 1.16984 1 2 tcp 1040 ------- 2 0.0 2.0 32 59
r 1.17316 1 2 tcp 1040 ------- 2 0.0 2.0 28 43
+ 1.17316 2 1 ack 40 ------- 2 2.0 0.0 28 62
- 1.17316 2 1 ack 40 ------- 2 2.0 0.0 28 62
r 1.1796 1 0 ack 40 ------- 2 2.0 0.0 18 49
+ 1.1796 0 1 tcp 1040 ------- 2 0.0 2.0 34 63
- 1.1796 0 1 tcp 1040 ------- 2 0.0 2.0 34 63
r 1.17996 2 1 ack 40 ------- 2 2.0 0.0 19 50
+ 1.17996 1 0 ack 40 ------- 2 2.0 0.0 19 50
- 1.17996 1 0 ack 40 ------- 2 2.0 0.0 19 50
r 1.18024 0 1 tcp 1040 ------- 2 0.0 2.0 33 61
+ 1.18024 1 2 tcp 1040 ------- 2 0.0 2.0 33 61
- 1.18024 1 2 tcp 1040 ------- 2 0.0 2.0 33 61
r 1.18356 1 2 tcp 1040 ------- 2 0.0 2.0 29 44
+ 1.18356 2 1 ack 40 ------- 2 2.0 0.0 29 64
- 1.18356 2 1 ack 40 ------- 2 2.0 0.0 29 64
r 1.19 1 0 ack 40 ------- 2 2.0 0.0 19 50
+ 1.19 0 1 tcp 1040 ------- 2 0.0 2.0 35 65
- 1.19 0 1 tcp 1040 ------- 2 0.0 2.0 35 65
r 1.19036 2 1 ack 40 ------- 2 2.0 0.0 20 51
+ 1.19036 1 0 ack 40 ------- 2 2.0 0.0 20 51
- 1.19036 1 0 ack 40 ------- 2 2.0 0.0 20 51
r 1.19064 0 1 tcp 1040 ------- 2 0.0 2.0 34 63
+ 1.19064 1 2 tcp 1040 ------- 2 0.0 2.0 34 63
- 1.19064 1 2 tcp 1040 ------- 2 0.0 2.0 34 63
r 1.19396 1 2 tcp 1040 ------- 2 0.0 2.0 30 45
+ 1.19396 2 1 ack 40 ------- 2 2.0 0.0 30 66
- 1.19396 2 1 ack 40 ------- 2 2.0 0.0 30 66
r 1.2004 1 0 ack 40 ------- 2 2.0 0.0 20 51
r 1.20076 2 1 ack 40 ------- 2 2.0 0.0 21 52
+ 1.20076 1 0 ack 40 ------- 2 2.0 0.0 21 52
- 1.20076 1 0 ack 40 ------- 2 2.0 0.0 21 52
r 1.20104 0 1 tcp 1040 ------- 2 0.0 2.0 35 65
+ 1.20104 1 2 tcp 1040 ------- 2 0.0 2.0 35 65
- 1.20104 1 2 tcp 1040 ------- 2 0.0 2.0 35 65
r 1.2108 1 0 ack 40 ------- 2 2.0 0.0 21 52
r 1.21116 2 1 ack 40 ------- 2 2.0 0.0 22 53
+ 1.21116 1 0 ack 40 ------- 2 2.0 0.0 22 53
- 1.21116 1 0 ack 40 ------- 2 2.0 0.0 22 53
r 1.2212 1 0 ack 40 ------- 2 2.0 0.0 22 53
r 1.22156 2 1 ack 40 ------- 2 2.0 0.0 23 54
+ 1.22156 1 0 ack 40 ------- 2 2.0 0.0 23 54
- 1.22156 1 0 ack 40 ------- 2 2.0 0.0 23 54
r 1.2316 1 0 ack 40 ------- 2 2.0 0.0 23 54
r 1.23196 2 1 ack 40 ------- 2 2.0 0.0 24 55
+ 1.23196 1 0 ack 40 ------- 2 2.0 0.0 24 55
- 1.23196 1 0 ack 40 ------- 2 2.0 0.0 24 55
r 1.242 1 0 ack 40 ------- 2 2.0 0.0 24 55
r 1.24236 2 1 ack 40 ------- 2 2.0 0.0 25 56
+ 1.24236 1 0 ack 40 ------- 2 2.0 0.0 25 56
- 1.24236 1 0 ack 40 ------- 2 2.0 0.0 25 56
r 1.2524 1 0 ack 40 ------- 2 2.0 0.0 25 56
r 1.25276 2 1 ack 40 ------- 2 2.0 0.0 26 58
+ 1.25276 1 0 ack 40 ------- 2 2.0 0.0 26 58
- 1.25276 1 0 ack 40 ------- 2 2.0 0.0 26 58
r 1.2628 1 0 ack 40 ------- 2 2.0 0.0 26 58
r 1.26316 2 1 ack 40 ------- 2 2.0 0.0 27 60
+ 1.26316 1 0 ack 40 ------- 2 2.0 0.0 27 60
- 1.26316 1 0 ack 40 ------- 2 2.0 0.0 27 60
r 1.26984 1 2 tcp 1040 ------- 2 0.0 2.0 31 57
+ 1.26984 2 1 ack 40 ------- 2 2.0 0.0 31 67
- 1.26984 2 1 ack 40 ------- 2 2.0 0.0 31 67
r 1.2732 1 0 ack 40 ------- 2 2.0 0.0 27 60
r 1.27356 2 1 ack 40 ------- 2 2.0 0.0 28 62
+ 1.27356 1 0 ack 40 ------- 2 2.0 0.0 28 62
- 1.27356 1 0 ack 40 ------- 2 2.0 0.0 28 62
r 1.28024 1 2 tcp 1040 ------- 2 0.0 2.0 32 59
+ 1.28024 2 1 ack 40 ------- 2 2.0 0.0 32 68
- 1.28024 2 1 ack 40 ------- 2 2.0 0.0 32 68
r 1.2836 1 0 ack 40 ------- 2 2.0 0.0 28 62
r 1.28396 2 1 ack 40 ------- 2 2.0 0.0 29 64
+ 1.28396 1 0 ack 40 ------- 2 2.0 0.0 29 64
- 1.28396 1 0 ack 40 ------- 2 2.0 0.0 29 64
r 1.29064 1 2 tcp 1040 ------- 2 0.0 2.0 33 61
+ 1.29064 2 1 ack 40 ------- 2 2.0 0.0 33 69
- 1.29064 2 1 ack 40 ------- 2 2.0 0.0 33 69
r 1.294 1 0 ack 40 ------- 2 2.0 0.0 29 64
r 1.29436 2 1 ack 40 ------- 2 2.0 0.0 30 66
+ 1.29436 1 0 ack 40 ------- 2 2.0 0.0 30 66
- 1.29436 1 0 ack 40 ------- 2 2.0 0.0 30 66
