+ 0.1 1 2 cbr 1000 ------- 2 1.0 3.1 0 0
- 0.1 1 2 cbr 1000 ------- 2 1.0 3.1 0 0
+ 0.108 1 2 cbr 1000 ------- 2 1.0 3.1 1 1
- 0.108 1 2 cbr 1000 ------- 2 1.0 3.1 1 1
r 0.114 1 2 cbr 1000 ------- 2 1.0 3.1 0 0
+ 0.114 2 3 cbr 1000 ------- 2 1.0 3.1 0 0
- 0.114 2 3 cbr 1000 ------- 2 1.0 3.1 0 0
+ 0.116 1 2 cbr 1000 ------- 2 1.0 3.1 2 2
- 0.116 1 2 cbr 1000 ------- 2 1.0 3.1 2 2
r 0.122 1 2 cbr 1000 ------- 2 1.0 3.1 1 1
+ 0.122 2 3 cbr 1000 ------- 2 1.0 3.1 1 1
- 0.122 2 3 cbr 1000 ------- 2 1.0 3.1 1 1
+ 0.124 1 2 cbr 1000 ------- 2 1.0 3.1 3 3
- 0.124 1 2 cbr 1000 ------- 2 1.0 3.1 3 3
r 0.13 1 2 cbr 1000 ------- 2 1.0 3.1 2 2
+ 0.13 2 3 cbr 1000 ------- 2 1.0 3.1 2 2
- 0.13 2 3 cbr 1000 ------- 2 1.0 3.1 2 2
+ 0.132 1 2 cbr 1000 ------- 2 1.0 3.1 4 4
- 0.132 1 2 cbr 1000 ------- 2 1.0 3.1 4 4
r 0.138 1 2 cbr 1000 ------- 2 1.0 3.1 3 3
+ 0.138 2 3 cbr 1000 ------- 2 1.0 3.1 3 3
- 0.138 2 3 cbr 1000 ------- 2 1.0 3.1 3 3
r 0.138706 2 3 cbr 1000 ------- 2 1.0 3.1 0 0
+ 0.14 1 2 cbr 1000 ------- 2 1.0 3.1 5 5
- 0.14 1 2 cbr 1000 ------- 2 1.0 3.1 5 5
r 0.146 1 2 cbr 1000 ------- 2 1.0 3.1 4 4
+ 0.146 2 3 cbr 1000 ------- 2 1.0 3.1 4 4
- 0.146 2 3 cbr 1000 ------- 2 1.0 3.1 4 4
r 0.146706 2 3 cbr 1000 ------- 2 1.0 3.1 1 1
+ 0.148 1 2 cbr 1000 ------- 2 1.0 3.1 6 6
- 0.148 1 2 cbr 1000 ------- 2 1.0 3.1 6 6
r 0.154 1 2 cbr 1000 ------- 2 1.0 3.1 5 5
+ 0.154 2 3 cbr 1000 ------- 2 1.0 3.1 5 5
- 0.154 2 3 cbr 1000 ------- 2 1.0 3.1 5 5
r 0.154706 2 3 cbr 1000 ------- 2 1.0 3.1 2 2
+ 0.156 1 2 cbr 1000 ------- 2 1.0 3.1 7 7
- 0.156 1 2 cbr 1000 ------- 2 1.0 3.1 7 7
r 0.162 1 2 cbr 1000 ------- 2 1.0 3.1 6 6
+ 0.162 2 3 cbr 1000 ------- 2 1.0 3.1 6 6
- 0.162 2 3 cbr 1000 ------- 2 1.0 3.1 6 6
r 0.162706 2 3 cbr 1000 ------- 2 1.0 3.1 3 3
+ 0.164 1 2 cbr 1000 ------- 2 1.0 3.1 8 8
- 0.164 1 2 cbr 1000 ------- 2 1.0 3.1 8 8
r 0.17 1 2 cbr 1000 ------- 2 1.0 3.1 7 7
+ 0.17 2 3 cbr 1000 ------- 2 1.0 3.1 7 7
- 0.17 2 3 cbr 1000 ------- 2 1.0 3.1 7 7
r 0.170706 2 3 cbr 1000 ------- 2 1.0 3.1 4 4
+ 0.172 1 2 cbr 1000 ------- 2 1.0 3.1 9 9
- 0.172 1 2 cbr 1000 ------- 2 1.0 3.1 9 9
r 0.178 1 2 cbr 1000 ------- 2 1.0 3.1 8 8
+ 0.178 2 3 cbr 1000 ------- 2 1.0 3.1 8 8
- 0.178 2 3 cbr 1000 ------- 2 1.0 3.1 8 8
r 0.178706 2 3 cbr 1000 ------- 2 1.0 3.1 5 5
+ 0.18 1 2 cbr 1000 ------- 2 1.0 3.1 10 10
- 0.18 1 2 cbr 1000 ------- 2 1.0 3.1 10 10
r 0.186 1 2 cbr 1000 ------- 2 1.0 3.1 9 9
+ 0.186 2 3 cbr 1000 ------- 2 1.0 3.1 9 9
- 0.186 2 3 cbr 1000 ------- 2 1.0 3.1 9 9
r 0.186706 2 3 cbr 1000 ------- 2 1.0 3.1 6 6
+ 0.188 1 2 cbr 1000 ------- 2 1.0 3.1 11 11
- 0.188 1 2 cbr 1000 ------- 2 1.0 3.1 11 11
r 0.194 1 2 cbr 1000 ------- 2 1.0 3.1 10 10
+ 0.194 2 3 cbr 1000 ------- 2 1.0 3.1 10 10
- 0.194 2 3 cbr 1000 ------- 2 1.0 3.1 10 10
r 0.194706 2 3 cbr 1000 ------- 2 1.0 3.1 7 7
+ 0.196 1 2 cbr 1000 ------- 2 1.0 3.1 12 12
- 0.196 1 2 cbr 1000 ------- 2 1.0 3.1 12 12
r 0.202 1 2 cbr 1000 ------- 2 1.0 3.1 11 11
+ 0.202 2 3 cbr 1000 ------- 2 1.0 3.1 11 11
- 0.202 2 3 cbr 1000 ------- 2 1.0 3.1 11 11
r 0.202706 2 3 cbr 1000 ------- 2 1.0 3.1 8 8
+ 0.204 1 2 cbr 1000 ------- 2 1.0 3.1 13 13
- 0.204 1 2 cbr 1000 ------- 2 1.0 3.1 13 13
r 0.21 1 2 cbr 1000 ------- 2 1.0 3.1 12 12
+ 0.21 2 3 cbr 1000 ------- 2 1.0 3.1 12 12
- 0.21 2 3 cbr 1000 ------- 2 1.0 3.1 12 12
r 0.210706 2 3 cbr 1000 ------- 2 1.0 3.1 9 9
+ 0.212 1 2 cbr 1000 ------- 2 1.0 3.1 14 14
- 0.212 1 2 cbr 1000 ------- 2 1.0 3.1 14 14
r 0.218 1 2 cbr 1000 ------- 2 1.0 3.1 13 13
+ 0.218 2 3 cbr 1000 ------- 2 1.0 3.1 13 13
- 0.218 2 3 cbr 1000 ------- 2 1.0 3.1 13 13
r 0.218706 2 3 cbr 1000 ------- 2 1.0 3.1 10 10
+ 0.22 1 2 cbr 1000 ------- 2 1.0 3.1 15 15
- 0.22 1 2 cbr 1000 ------- 2 1.0 3.1 15 15
r 0.226 1 2 cbr 1000 ------- 2 1.0 3.1 14 14
+ 0.226 2 3 cbr 1000 ------- 2 1.0 3.1 14 14
- 0.226 2 3 cbr 1000 ------- 2 1.0 3.1 14 14
r 0.226706 2 3 cbr 1000 ------- 2 1.0 3.1 11 11
+ 0.228 1 2 cbr 1000 ------- 2 1.0 3.1 16 16
- 0.228 1 2 cbr 1000 ------- 2 1.0 3.1 16 16
r 0.234 1 2 cbr 1000 ------- 2 1.0 3.1 15 15
+ 0.234 2 3 cbr 1000 ------- 2 1.0 3.1 15 15
- 0.234 2 3 cbr 1000 ------- 2 1.0 3.1 15 15
r 0.234706 2 3 cbr 1000 ------- 2 1.0 3.1 12 12
+ 0.236 1 2 cbr 1000 ------- 2 1.0 3.1 17 17
- 0.236 1 2 cbr 1000 ------- 2 1.0 3.1 17 17
r 0.242 1 2 cbr 1000 ------- 2 1.0 3.1 16 16
+ 0.242 2 3 cbr 1000 ------- 2 1.0 3.1 16 16
- 0.242 2 3 cbr 1000 ------- 2 1.0 3.1 16 16
r 0.242706 2 3 cbr 1000 ------- 2 1.0 3.1 13 13
+ 0.244 1 2 cbr 1000 ------- 2 1.0 3.1 18 18
- 0.244 1 2 cbr 1000 ------- 2 1.0 3.1 18 18
r 0.25 1 2 cbr 1000 ------- 2 1.0 3.1 17 17
+ 0.25 2 3 cbr 1000 ------- 2 1.0 3.1 17 17
- 0.25 2 3 cbr 1000 ------- 2 1.0 3.1 17 17
r 0.250706 2 3 cbr 1000 ------- 2 1.0 3.1 14 14
+ 0.252 1 2 cbr 1000 ------- 2 1.0 3.1 19 19
- 0.252 1 2 cbr 1000 ------- 2 1.0 3.1 19 19
r 0.258 1 2 cbr 1000 ------- 2 1.0 3.1 18 18
+ 0.258 2 3 cbr 1000 ------- 2 1.0 3.1 18 18
- 0.258 2 3 cbr 1000 ------- 2 1.0 3.1 18 18
r 0.258706 2 3 cbr 1000 ------- 2 1.0 3.1 15 15
+ 0.26 1 2 cbr 1000 ------- 2 1.0 3.1 20 20
- 0.26 1 2 cbr 1000 ------- 2 1.0 3.1 20 20
r 0.266 1 2 cbr 1000 ------- 2 1.0 3.1 19 19
+ 0.266 2 3 cbr 1000 ------- 2 1.0 3.1 19 19
- 0.266 2 3 cbr 1000 ------- 2 1.0 3.1 19 19
r 0.266706 2 3 cbr 1000 ------- 2 1.0 3.1 16 16
+ 0.268 1 2 cbr 1000 ------- 2 1.0 3.1 21 21
- 0.268 1 2 cbr 1000 ------- 2 1.0 3.1 21 21
r 0.274 1 2 cbr 1000 ------- 2 1.0 3.1 20 20
+ 0.274 2 3 cbr 1000 ------- 2 1.0 3.1 20 20
- 0.274 2 3 cbr 1000 ------- 2 1.0 3.1 20 20
r 0.274706 2 3 cbr 1000 ------- 2 1.0 3.1 17 17
+ 0.276 1 2 cbr 1000 ------- 2 1.0 3.1 22 22
- 0.276 1 2 cbr 1000 ------- 2 1.0 3.1 22 22
r 0.282 1 2 cbr 1000 ------- 2 1.0 3.1 21 21
+ 0.282 2 3 cbr 1000 ------- 2 1.0 3.1 21 21
- 0.282 2 3 cbr 1000 ------- 2 1.0 3.1 21 21
r 0.282706 2 3 cbr 1000 ------- 2 1.0 3.1 18 18
+ 0.284 1 2 cbr 1000 ------- 2 1.0 3.1 23 23
- 0.284 1 2 cbr 1000 ------- 2 1.0 3.1 23 23
r 0.29 1 2 cbr 1000 ------- 2 1.0 3.1 22 22
+ 0.29 2 3 cbr 1000 ------- 2 1.0 3.1 22 22
- 0.29 2 3 cbr 1000 ------- 2 1.0 3.1 22 22
r 0.290706 2 3 cbr 1000 ------- 2 1.0 3.1 19 19
+ 0.292 1 2 cbr 1000 ------- 2 1.0 3.1 24 24
- 0.292 1 2 cbr 1000 ------- 2 1.0 3.1 24 24
r 0.298 1 2 cbr 1000 ------- 2 1.0 3.1 23 23
+ 0.298 2 3 cbr 1000 ------- 2 1.0 3.1 23 23
- 0.298 2 3 cbr 1000 ------- 2 1.0 3.1 23 23
r 0.298706 2 3 cbr 1000 ------- 2 1.0 3.1 20 20
+ 0.3 1 2 cbr 1000 ------- 2 1.0 3.1 25 25
- 0.3 1 2 cbr 1000 ------- 2 1.0 3.1 25 25
r 0.306 1 2 cbr 1000 ------- 2 1.0 3.1 24 24
+ 0.306 2 3 cbr 1000 ------- 2 1.0 3.1 24 24
- 0.306 2 3 cbr 1000 ------- 2 1.0 3.1 24 24
r 0.306706 2 3 cbr 1000 ------- 2 1.0 3.1 21 21
+ 0.308 1 2 cbr 1000 ------- 2 1.0 3.1 26 26
- 0.308 1 2 cbr 1000 ------- 2 1.0 3.1 26 26
r 0.314 1 2 cbr 1000 ------- 2 1.0 3.1 25 25
+ 0.314 2 3 cbr 1000 ------- 2 1.0 3.1 25 25
- 0.314 2 3 cbr 1000 ------- 2 1.0 3.1 25 25
r 0.314706 2 3 cbr 1000 ------- 2 1.0 3.1 22 22
+ 0.316 1 2 cbr 1000 ------- 2 1.0 3.1 27 27
- 0.316 1 2 cbr 1000 ------- 2 1.0 3.1 27 27
r 0.322 1 2 cbr 1000 ------- 2 1.0 3.1 26 26
+ 0.322 2 3 cbr 1000 ------- 2 1.0 3.1 26 26
- 0.322 2 3 cbr 1000 ------- 2 1.0 3.1 26 26
r 0.322706 2 3 cbr 1000 ------- 2 1.0 3.1 23 23
+ 0.324 1 2 cbr 1000 ------- 2 1.0 3.1 28 28
- 0.324 1 2 cbr 1000 ------- 2 1.0 3.1 28 28
r 0.33 1 2 cbr 1000 ------- 2 1.0 3.1 27 27
+ 0.33 2 3 cbr 1000 ------- 2 1.0 3.1 27 27
- 0.33 2 3 cbr 1000 ------- 2 1.0 3.1 27 27
r 0.330706 2 3 cbr 1000 ------- 2 1.0 3.1 24 24
+ 0.332 1 2 cbr 1000 ------- 2 1.0 3.1 29 29
- 0.332 1 2 cbr 1000 ------- 2 1.0 3.1 29 29
r 0.338 1 2 cbr 1000 ------- 2 1.0 3.1 28 28
+ 0.338 2 3 cbr 1000 ------- 2 1.0 3.1 28 28
- 0.338 2 3 cbr 1000 ------- 2 1.0 3.1 28 28
r 0.338706 2 3 cbr 1000 ------- 2 1.0 3.1 25 25
+ 0.34 1 2 cbr 1000 ------- 2 1.0 3.1 30 30
- 0.34 1 2 cbr 1000 ------- 2 1.0 3.1 30 30
r 0.346 1 2 cbr 1000 ------- 2 1.0 3.1 29 29
+ 0.346 2 3 cbr 1000 ------- 2 1.0 3.1 29 29
- 0.346 2 3 cbr 1000 ------- 2 1.0 3.1 29 29
r 0.346706 2 3 cbr 1000 ------- 2 1.0 3.1 26 26
+ 0.348 1 2 cbr 1000 ------- 2 1.0 3.1 31 31
- 0.348 1 2 cbr 1000 ------- 2 1.0 3.1 31 31
r 0.354 1 2 cbr 1000 ------- 2 1.0 3.1 30 30
+ 0.354 2 3 cbr 1000 ------- 2 1.0 3.1 30 30
- 0.354 2 3 cbr 1000 ------- 2 1.0 3.1 30 30
r 0.354706 2 3 cbr 1000 ------- 2 1.0 3.1 27 27
+ 0.356 1 2 cbr 1000 ------- 2 1.0 3.1 32 32
- 0.356 1 2 cbr 1000 ------- 2 1.0 3.1 32 32
r 0.362 1 2 cbr 1000 ------- 2 1.0 3.1 31 31
+ 0.362 2 3 cbr 1000 ------- 2 1.0 3.1 31 31
- 0.362 2 3 cbr 1000 ------- 2 1.0 3.1 31 31
r 0.362706 2 3 cbr 1000 ------- 2 1.0 3.1 28 28
+ 0.364 1 2 cbr 1000 ------- 2 1.0 3.1 33 33
- 0.364 1 2 cbr 1000 ------- 2 1.0 3.1 33 33
r 0.37 1 2 cbr 1000 ------- 2 1.0 3.1 32 32
+ 0.37 2 3 cbr 1000 ------- 2 1.0 3.1 32 32
- 0.37 2 3 cbr 1000 ------- 2 1.0 3.1 32 32
r 0.370706 2 3 cbr 1000 ------- 2 1.0 3.1 29 29
+ 0.372 1 2 cbr 1000 ------- 2 1.0 3.1 34 34
- 0.372 1 2 cbr 1000 ------- 2 1.0 3.1 34 34
r 0.378 1 2 cbr 1000 ------- 2 1.0 3.1 33 33
+ 0.378 2 3 cbr 1000 ------- 2 1.0 3.1 33 33
- 0.378 2 3 cbr 1000 ------- 2 1.0 3.1 33 33
r 0.378706 2 3 cbr 1000 ------- 2 1.0 3.1 30 30
+ 0.38 1 2 cbr 1000 ------- 2 1.0 3.1 35 35
- 0.38 1 2 cbr 1000 ------- 2 1.0 3.1 35 35
r 0.386 1 2 cbr 1000 ------- 2 1.0 3.1 34 34
+ 0.386 2 3 cbr 1000 ------- 2 1.0 3.1 34 34
- 0.386 2 3 cbr 1000 ------- 2 1.0 3.1 34 34
r 0.386706 2 3 cbr 1000 ------- 2 1.0 3.1 31 31
+ 0.388 1 2 cbr 1000 ------- 2 1.0 3.1 36 36
- 0.388 1 2 cbr 1000 ------- 2 1.0 3.1 36 36
r 0.394 1 2 cbr 1000 ------- 2 1.0 3.1 35 35
+ 0.394 2 3 cbr 1000 ------- 2 1.0 3.1 35 35
- 0.394 2 3 cbr 1000 ------- 2 1.0 3.1 35 35
r 0.394706 2 3 cbr 1000 ------- 2 1.0 3.1 32 32
+ 0.396 1 2 cbr 1000 ------- 2 1.0 3.1 37 37
- 0.396 1 2 cbr 1000 ------- 2 1.0 3.1 37 37
r 0.402 1 2 cbr 1000 ------- 2 1.0 3.1 36 36
+ 0.402 2 3 cbr 1000 ------- 2 1.0 3.1 36 36
- 0.402 2 3 cbr 1000 ------- 2 1.0 3.1 36 36
r 0.402706 2 3 cbr 1000 ------- 2 1.0 3.1 33 33
+ 0.404 1 2 cbr 1000 ------- 2 1.0 3.1 38 38
- 0.404 1 2 cbr 1000 ------- 2 1.0 3.1 38 38
r 0.41 1 2 cbr 1000 ------- 2 1.0 3.1 37 37
+ 0.41 2 3 cbr 1000 ------- 2 1.0 3.1 37 37
- 0.41 2 3 cbr 1000 ------- 2 1.0 3.1 37 37
r 0.410706 2 3 cbr 1000 ------- 2 1.0 3.1 34 34
+ 0.412 1 2 cbr 1000 ------- 2 1.0 3.1 39 39
- 0.412 1 2 cbr 1000 ------- 2 1.0 3.1 39 39
r 0.418 1 2 cbr 1000 ------- 2 1.0 3.1 38 38
+ 0.418 2 3 cbr 1000 ------- 2 1.0 3.1 38 38
- 0.418 2 3 cbr 1000 ------- 2 1.0 3.1 38 38
r 0.418706 2 3 cbr 1000 ------- 2 1.0 3.1 35 35
+ 0.42 1 2 cbr 1000 ------- 2 1.0 3.1 40 40
- 0.42 1 2 cbr 1000 ------- 2 1.0 3.1 40 40
r 0.426 1 2 cbr 1000 ------- 2 1.0 3.1 39 39
+ 0.426 2 3 cbr 1000 ------- 2 1.0 3.1 39 39
- 0.426 2 3 cbr 1000 ------- 2 1.0 3.1 39 39
r 0.426706 2 3 cbr 1000 ------- 2 1.0 3.1 36 36
+ 0.428 1 2 cbr 1000 ------- 2 1.0 3.1 41 41
- 0.428 1 2 cbr 1000 ------- 2 1.0 3.1 41 41
r 0.434 1 2 cbr 1000 ------- 2 1.0 3.1 40 40
+ 0.434 2 3 cbr 1000 ------- 2 1.0 3.1 40 40
- 0.434 2 3 cbr 1000 ------- 2 1.0 3.1 40 40
r 0.434706 2 3 cbr 1000 ------- 2 1.0 3.1 37 37
+ 0.436 1 2 cbr 1000 ------- 2 1.0 3.1 42 42
- 0.436 1 2 cbr 1000 ------- 2 1.0 3.1 42 42
r 0.442 1 2 cbr 1000 ------- 2 1.0 3.1 41 41
+ 0.442 2 3 cbr 1000 ------- 2 1.0 3.1 41 41
- 0.442 2 3 cbr 1000 ------- 2 1.0 3.1 41 41
r 0.442706 2 3 cbr 1000 ------- 2 1.0 3.1 38 38
+ 0.444 1 2 cbr 1000 ------- 2 1.0 3.1 43 43
- 0.444 1 2 cbr 1000 ------- 2 1.0 3.1 43 43
r 0.45 1 2 cbr 1000 ------- 2 1.0 3.1 42 42
+ 0.45 2 3 cbr 1000 ------- 2 1.0 3.1 42 42
- 0.45 2 3 cbr 1000 ------- 2 1.0 3.1 42 42
r 0.450706 2 3 cbr 1000 ------- 2 1.0 3.1 39 39
+ 0.452 1 2 cbr 1000 ------- 2 1.0 3.1 44 44
- 0.452 1 2 cbr 1000 ------- 2 1.0 3.1 44 44
r 0.458 1 2 cbr 1000 ------- 2 1.0 3.1 43 43
+ 0.458 2 3 cbr 1000 ------- 2 1.0 3.1 43 43
- 0.458 2 3 cbr 1000 ------- 2 1.0 3.1 43 43
r 0.458706 2 3 cbr 1000 ------- 2 1.0 3.1 40 40
+ 0.46 1 2 cbr 1000 ------- 2 1.0 3.1 45 45
- 0.46 1 2 cbr 1000 ------- 2 1.0 3.1 45 45
r 0.466 1 2 cbr 1000 ------- 2 1.0 3.1 44 44
+ 0.466 2 3 cbr 1000 ------- 2 1.0 3.1 44 44
- 0.466 2 3 cbr 1000 ------- 2 1.0 3.1 44 44
r 0.466706 2 3 cbr 1000 ------- 2 1.0 3.1 41 41
+ 0.468 1 2 cbr 1000 ------- 2 1.0 3.1 46 46
- 0.468 1 2 cbr 1000 ------- 2 1.0 3.1 46 46
r 0.474 1 2 cbr 1000 ------- 2 1.0 3.1 45 45
+ 0.474 2 3 cbr 1000 ------- 2 1.0 3.1 45 45
- 0.474 2 3 cbr 1000 ------- 2 1.0 3.1 45 45
r 0.474706 2 3 cbr 1000 ------- 2 1.0 3.1 42 42
+ 0.476 1 2 cbr 1000 ------- 2 1.0 3.1 47 47
- 0.476 1 2 cbr 1000 ------- 2 1.0 3.1 47 47
r 0.482 1 2 cbr 1000 ------- 2 1.0 3.1 46 46
+ 0.482 2 3 cbr 1000 ------- 2 1.0 3.1 46 46
- 0.482 2 3 cbr 1000 ------- 2 1.0 3.1 46 46
r 0.482706 2 3 cbr 1000 ------- 2 1.0 3.1 43 43
+ 0.484 1 2 cbr 1000 ------- 2 1.0 3.1 48 48
- 0.484 1 2 cbr 1000 ------- 2 1.0 3.1 48 48
r 0.49 1 2 cbr 1000 ------- 2 1.0 3.1 47 47
+ 0.49 2 3 cbr 1000 ------- 2 1.0 3.1 47 47
- 0.49 2 3 cbr 1000 ------- 2 1.0 3.1 47 47
r 0.490706 2 3 cbr 1000 ------- 2 1.0 3.1 44 44
+ 0.492 1 2 cbr 1000 ------- 2 1.0 3.1 49 49
- 0.492 1 2 cbr 1000 ------- 2 1.0 3.1 49 49
r 0.498 1 2 cbr 1000 ------- 2 1.0 3.1 48 48
+ 0.498 2 3 cbr 1000 ------- 2 1.0 3.1 48 48
- 0.498 2 3 cbr 1000 ------- 2 1.0 3.1 48 48
r 0.498706 2 3 cbr 1000 ------- 2 1.0 3.1 45 45
+ 0.5 0 2 tcp 40 ------- 1 0.0 3.0 0 50
- 0.5 0 2 tcp 40 ------- 1 0.0 3.0 0 50
+ 0.5 1 2 cbr 1000 ------- 2 1.0 3.1 50 51
- 0.5 1 2 cbr 1000 ------- 2 1.0 3.1 50 51
r 0.506 1 2 cbr 1000 ------- 2 1.0 3.1 49 49
+ 0.506 2 3 cbr 1000 ------- 2 1.0 3.1 49 49
- 0.506 2 3 cbr 1000 ------- 2 1.0 3.1 49 49
r 0.506706 2 3 cbr 1000 ------- 2 1.0 3.1 46 46
+ 0.508 1 2 cbr 1000 ------- 2 1.0 3.1 51 52
- 0.508 1 2 cbr 1000 ------- 2 1.0 3.1 51 52
r 0.51016 0 2 tcp 40 ------- 1 0.0 3.0 0 50
+ 0.51016 2 3 tcp 40 ------- 1 0.0 3.0 0 50
- 0.510706 2 3 tcp 40 ------- 1 0.0 3.0 0 50
r 0.514 1 2 cbr 1000 ------- 2 1.0 3.1 50 51
+ 0.514 2 3 cbr 1000 ------- 2 1.0 3.1 50 51
- 0.514 2 3 cbr 1000 ------- 2 1.0 3.1 50 51
r 0.514706 2 3 cbr 1000 ------- 2 1.0 3.1 47 47
+ 0.516 1 2 cbr 1000 ------- 2 1.0 3.1 52 53
- 0.516 1 2 cbr 1000 ------- 2 1.0 3.1 52 53
r 0.522 1 2 cbr 1000 ------- 2 1.0 3.1 51 52
+ 0.522 2 3 cbr 1000 ------- 2 1.0 3.1 51 52
- 0.522 2 3 cbr 1000 ------- 2 1.0 3.1 51 52
r 0.522706 2 3 cbr 1000 ------- 2 1.0 3.1 48 48
+ 0.524 1 2 cbr 1000 ------- 2 1.0 3.1 53 54
- 0.524 1 2 cbr 1000 ------- 2 1.0 3.1 53 54
r 0.53 1 2 cbr 1000 ------- 2 1.0 3.1 52 53
+ 0.53 2 3 cbr 1000 ------- 2 1.0 3.1 52 53
- 0.53 2 3 cbr 1000 ------- 2 1.0 3.1 52 53
r 0.530706 2 3 cbr 1000 ------- 2 1.0 3.1 49 49
r 0.530894 2 3 tcp 40 ------- 1 0.0 3.0 0 50
+ 0.530894 3 2 ack 40 ------- 1 3.0 0.0 0 55
- 0.530894 3 2 ack 40 ------- 1 3.0 0.0 0 55
+ 0.532 1 2 cbr 1000 ------- 2 1.0 3.1 54 56
- 0.532 1 2 cbr 1000 ------- 2 1.0 3.1 54 56
r 0.538 1 2 cbr 1000 ------- 2 1.0 3.1 53 54
+ 0.538 2 3 cbr 1000 ------- 2 1.0 3.1 53 54
- 0.538 2 3 cbr 1000 ------- 2 1.0 3.1 53 54
r 0.538706 2 3 cbr 1000 ------- 2 1.0 3.1 50 51
+ 0.54 1 2 cbr 1000 ------- 2 1.0 3.1 55 57
- 0.54 1 2 cbr 1000 ------- 2 1.0 3.1 55 57
r 0.546 1 2 cbr 1000 ------- 2 1.0 3.1 54 56
+ 0.546 2 3 cbr 1000 ------- 2 1.0 3.1 54 56
- 0.546 2 3 cbr 1000 ------- 2 1.0 3.1 54 56
r 0.546706 2 3 cbr 1000 ------- 2 1.0 3.1 51 52
+ 0.548 1 2 cbr 1000 ------- 2 1.0 3.1 56 58
- 0.548 1 2 cbr 1000 ------- 2 1.0 3.1 56 58
r 0.551082 3 2 ack 40 ------- 1 3.0 0.0 0 55
+ 0.551082 2 0 ack 40 ------- 1 3.0 0.0 0 55
- 0.551082 2 0 ack 40 ------- 1 3.0 0.0 0 55
r 0.554 1 2 cbr 1000 ------- 2 1.0 3.1 55 57
+ 0.554 2 3 cbr 1000 ------- 2 1.0 3.1 55 57
- 0.554 2 3 cbr 1000 ------- 2 1.0 3.1 55 57
r 0.554706 2 3 cbr 1000 ------- 2 1.0 3.1 52 53
+ 0.556 1 2 cbr 1000 ------- 2 1.0 3.1 57 59
- 0.556 1 2 cbr 1000 ------- 2 1.0 3.1 57 59
r 0.561242 2 0 ack 40 ------- 1 3.0 0.0 0 55
+ 0.561242 0 2 tcp 1040 ------- 1 0.0 3.0 1 60
- 0.561242 0 2 tcp 1040 ------- 1 0.0 3.0 1 60
+ 0.561242 0 2 tcp 1040 ------- 1 0.0 3.0 2 61
r 0.562 1 2 cbr 1000 ------- 2 1.0 3.1 56 58
+ 0.562 2 3 cbr 1000 ------- 2 1.0 3.1 56 58
- 0.562 2 3 cbr 1000 ------- 2 1.0 3.1 56 58
r 0.562706 2 3 cbr 1000 ------- 2 1.0 3.1 53 54
+ 0.564 1 2 cbr 1000 ------- 2 1.0 3.1 58 62
- 0.564 1 2 cbr 1000 ------- 2 1.0 3.1 58 62
- 0.565402 0 2 tcp 1040 ------- 1 0.0 3.0 2 61
r 0.57 1 2 cbr 1000 ------- 2 1.0 3.1 57 59
+ 0.57 2 3 cbr 1000 ------- 2 1.0 3.1 57 59
- 0.57 2 3 cbr 1000 ------- 2 1.0 3.1 57 59
r 0.570706 2 3 cbr 1000 ------- 2 1.0 3.1 54 56
+ 0.572 1 2 cbr 1000 ------- 2 1.0 3.1 59 63
- 0.572 1 2 cbr 1000 ------- 2 1.0 3.1 59 63
r 0.575402 0 2 tcp 1040 ------- 1 0.0 3.0 1 60
+ 0.575402 2 3 tcp 1040 ------- 1 0.0 3.0 1 60
- 0.575402 2 3 tcp 1040 ------- 1 0.0 3.0 1 60
r 0.578 1 2 cbr 1000 ------- 2 1.0 3.1 58 62
+ 0.578 2 3 cbr 1000 ------- 2 1.0 3.1 58 62
r 0.578706 2 3 cbr 1000 ------- 2 1.0 3.1 55 57
r 0.579562 0 2 tcp 1040 ------- 1 0.0 3.0 2 61
+ 0.579562 2 3 tcp 1040 ------- 1 0.0 3.0 2 61
+ 0.58 1 2 cbr 1000 ------- 2 1.0 3.1 60 64
- 0.58 1 2 cbr 1000 ------- 2 1.0 3.1 60 64
- 0.580296 2 3 cbr 1000 ------- 2 1.0 3.1 58 62
- 0.585002 2 3 tcp 1040 ------- 1 0.0 3.0 2 61
r 0.586 1 2 cbr 1000 ------- 2 1.0 3.1 59 63
+ 0.586 2 3 cbr 1000 ------- 2 1.0 3.1 59 63
r 0.586706 2 3 cbr 1000 ------- 2 1.0 3.1 56 58
+ 0.588 1 2 cbr 1000 ------- 2 1.0 3.1 61 65
- 0.588 1 2 cbr 1000 ------- 2 1.0 3.1 61 65
- 0.589896 2 3 cbr 1000 ------- 2 1.0 3.1 59 63
r 0.594 1 2 cbr 1000 ------- 2 1.0 3.1 60 64
+ 0.594 2 3 cbr 1000 ------- 2 1.0 3.1 60 64
- 0.594602 2 3 cbr 1000 ------- 2 1.0 3.1 60 64
r 0.594706 2 3 cbr 1000 ------- 2 1.0 3.1 57 59
+ 0.596 1 2 cbr 1000 ------- 2 1.0 3.1 62 66
- 0.596 1 2 cbr 1000 ------- 2 1.0 3.1 62 66
r 0.600296 2 3 tcp 1040 ------- 1 0.0 3.0 1 60
+ 0.600296 3 2 ack 40 ------- 1 3.0 0.0 1 67
- 0.600296 3 2 ack 40 ------- 1 3.0 0.0 1 67
r 0.602 1 2 cbr 1000 ------- 2 1.0 3.1 61 65
+ 0.602 2 3 cbr 1000 ------- 2 1.0 3.1 61 65
- 0.602 2 3 cbr 1000 ------- 2 1.0 3.1 61 65
+ 0.604 1 2 cbr 1000 ------- 2 1.0 3.1 63 68
- 0.604 1 2 cbr 1000 ------- 2 1.0 3.1 63 68
r 0.605002 2 3 cbr 1000 ------- 2 1.0 3.1 58 62
r 0.609896 2 3 tcp 1040 ------- 1 0.0 3.0 2 61
+ 0.609896 3 2 ack 40 ------- 1 3.0 0.0 2 69
- 0.609896 3 2 ack 40 ------- 1 3.0 0.0 2 69
r 0.61 1 2 cbr 1000 ------- 2 1.0 3.1 62 66
+ 0.61 2 3 cbr 1000 ------- 2 1.0 3.1 62 66
- 0.61 2 3 cbr 1000 ------- 2 1.0 3.1 62 66
+ 0.612 1 2 cbr 1000 ------- 2 1.0 3.1 64 70
- 0.612 1 2 cbr 1000 ------- 2 1.0 3.1 64 70
r 0.614602 2 3 cbr 1000 ------- 2 1.0 3.1 59 63
r 0.618 1 2 cbr 1000 ------- 2 1.0 3.1 63 68
+ 0.618 2 3 cbr 1000 ------- 2 1.0 3.1 63 68
- 0.618 2 3 cbr 1000 ------- 2 1.0 3.1 63 68
r 0.619308 2 3 cbr 1000 ------- 2 1.0 3.1 60 64
+ 0.62 1 2 cbr 1000 ------- 2 1.0 3.1 65 71
- 0.62 1 2 cbr 1000 ------- 2 1.0 3.1 65 71
r 0.620485 3 2 ack 40 ------- 1 3.0 0.0 1 67
+ 0.620485 2 0 ack 40 ------- 1 3.0 0.0 1 67
- 0.620485 2 0 ack 40 ------- 1 3.0 0.0 1 67
r 0.626 1 2 cbr 1000 ------- 2 1.0 3.1 64 70
+ 0.626 2 3 cbr 1000 ------- 2 1.0 3.1 64 70
- 0.626 2 3 cbr 1000 ------- 2 1.0 3.1 64 70
r 0.626706 2 3 cbr 1000 ------- 2 1.0 3.1 61 65
+ 0.628 1 2 cbr 1000 ------- 2 1.0 3.1 66 72
- 0.628 1 2 cbr 1000 ------- 2 1.0 3.1 66 72
r 0.630085 3 2 ack 40 ------- 1 3.0 0.0 2 69
+ 0.630085 2 0 ack 40 ------- 1 3.0 0.0 2 69
- 0.630085 2 0 ack 40 ------- 1 3.0 0.0 2 69
r 0.630645 2 0 ack 40 ------- 1 3.0 0.0 1 67
+ 0.630645 0 2 tcp 1040 ------- 1 0.0 3.0 3 73
- 0.630645 0 2 tcp 1040 ------- 1 0.0 3.0 3 73
+ 0.630645 0 2 tcp 1040 ------- 1 0.0 3.0 4 74
r 0.634 1 2 cbr 1000 ------- 2 1.0 3.1 65 71
+ 0.634 2 3 cbr 1000 ------- 2 1.0 3.1 65 71
- 0.634 2 3 cbr 1000 ------- 2 1.0 3.1 65 71
r 0.634706 2 3 cbr 1000 ------- 2 1.0 3.1 62 66
- 0.634805 0 2 tcp 1040 ------- 1 0.0 3.0 4 74
+ 0.636 1 2 cbr 1000 ------- 2 1.0 3.1 67 75
- 0.636 1 2 cbr 1000 ------- 2 1.0 3.1 67 75
r 0.640245 2 0 ack 40 ------- 1 3.0 0.0 2 69
+ 0.640245 0 2 tcp 1040 ------- 1 0.0 3.0 5 76
- 0.640245 0 2 tcp 1040 ------- 1 0.0 3.0 5 76
+ 0.640245 0 2 tcp 1040 ------- 1 0.0 3.0 6 77
r 0.642 1 2 cbr 1000 ------- 2 1.0 3.1 66 72
+ 0.642 2 3 cbr 1000 ------- 2 1.0 3.1 66 72
- 0.642 2 3 cbr 1000 ------- 2 1.0 3.1 66 72
r 0.642706 2 3 cbr 1000 ------- 2 1.0 3.1 63 68
+ 0.644 1 2 cbr 1000 ------- 2 1.0 3.1 68 78
- 0.644 1 2 cbr 1000 ------- 2 1.0 3.1 68 78
- 0.644405 0 2 tcp 1040 ------- 1 0.0 3.0 6 77
r 0.644805 0 2 tcp 1040 ------- 1 0.0 3.0 3 73
+ 0.644805 2 3 tcp 1040 ------- 1 0.0 3.0 3 73
- 0.646706 2 3 tcp 1040 ------- 1 0.0 3.0 3 73
r 0.648965 0 2 tcp 1040 ------- 1 0.0 3.0 4 74
+ 0.648965 2 3 tcp 1040 ------- 1 0.0 3.0 4 74
r 0.65 1 2 cbr 1000 ------- 2 1.0 3.1 67 75
+ 0.65 2 3 cbr 1000 ------- 2 1.0 3.1 67 75
r 0.650706 2 3 cbr 1000 ------- 2 1.0 3.1 64 70
- 0.6516 2 3 tcp 1040 ------- 1 0.0 3.0 4 74
+ 0.652 1 2 cbr 1000 ------- 2 1.0 3.1 69 79
- 0.652 1 2 cbr 1000 ------- 2 1.0 3.1 69 79
r 0.654405 0 2 tcp 1040 ------- 1 0.0 3.0 5 76
+ 0.654405 2 3 tcp 1040 ------- 1 0.0 3.0 5 76
- 0.656494 2 3 cbr 1000 ------- 2 1.0 3.1 67 75
r 0.658 1 2 cbr 1000 ------- 2 1.0 3.1 68 78
+ 0.658 2 3 cbr 1000 ------- 2 1.0 3.1 68 78
r 0.658565 0 2 tcp 1040 ------- 1 0.0 3.0 6 77
+ 0.658565 2 3 tcp 1040 ------- 1 0.0 3.0 6 77
r 0.658706 2 3 cbr 1000 ------- 2 1.0 3.1 65 71
+ 0.66 1 2 cbr 1000 ------- 2 1.0 3.1 70 80
- 0.66 1 2 cbr 1000 ------- 2 1.0 3.1 70 80
- 0.6612 2 3 tcp 1040 ------- 1 0.0 3.0 5 76
r 0.666 1 2 cbr 1000 ------- 2 1.0 3.1 69 79
+ 0.666 2 3 cbr 1000 ------- 2 1.0 3.1 69 79
- 0.666094 2 3 cbr 1000 ------- 2 1.0 3.1 68 78
r 0.666706 2 3 cbr 1000 ------- 2 1.0 3.1 66 72
+ 0.668 1 2 cbr 1000 ------- 2 1.0 3.1 71 81
- 0.668 1 2 cbr 1000 ------- 2 1.0 3.1 71 81
- 0.6708 2 3 tcp 1040 ------- 1 0.0 3.0 6 77
r 0.6716 2 3 tcp 1040 ------- 1 0.0 3.0 3 73
+ 0.6716 3 2 ack 40 ------- 1 3.0 0.0 3 82
- 0.6716 3 2 ack 40 ------- 1 3.0 0.0 3 82
r 0.674 1 2 cbr 1000 ------- 2 1.0 3.1 70 80
+ 0.674 2 3 cbr 1000 ------- 2 1.0 3.1 70 80
- 0.675694 2 3 cbr 1000 ------- 2 1.0 3.1 69 79
+ 0.676 1 2 cbr 1000 ------- 2 1.0 3.1 72 83
- 0.676 1 2 cbr 1000 ------- 2 1.0 3.1 72 83
r 0.676494 2 3 tcp 1040 ------- 1 0.0 3.0 4 74
+ 0.676494 3 2 ack 40 ------- 1 3.0 0.0 4 84
- 0.676494 3 2 ack 40 ------- 1 3.0 0.0 4 84
- 0.6804 2 3 cbr 1000 ------- 2 1.0 3.1 70 80
r 0.6812 2 3 cbr 1000 ------- 2 1.0 3.1 67 75
r 0.682 1 2 cbr 1000 ------- 2 1.0 3.1 71 81
+ 0.682 2 3 cbr 1000 ------- 2 1.0 3.1 71 81
+ 0.684 1 2 cbr 1000 ------- 2 1.0 3.1 73 85
- 0.684 1 2 cbr 1000 ------- 2 1.0 3.1 73 85
- 0.685106 2 3 cbr 1000 ------- 2 1.0 3.1 71 81
r 0.686094 2 3 tcp 1040 ------- 1 0.0 3.0 5 76
+ 0.686094 3 2 ack 40 ------- 1 3.0 0.0 5 86
- 0.686094 3 2 ack 40 ------- 1 3.0 0.0 5 86
r 0.69 1 2 cbr 1000 ------- 2 1.0 3.1 72 83
+ 0.69 2 3 cbr 1000 ------- 2 1.0 3.1 72 83
- 0.69 2 3 cbr 1000 ------- 2 1.0 3.1 72 83
r 0.6908 2 3 cbr 1000 ------- 2 1.0 3.1 68 78
r 0.691788 3 2 ack 40 ------- 1 3.0 0.0 3 82
+ 0.691788 2 0 ack 40 ------- 1 3.0 0.0 3 82
- 0.691788 2 0 ack 40 ------- 1 3.0 0.0 3 82
+ 0.692 1 2 cbr 1000 ------- 2 1.0 3.1 74 87
- 0.692 1 2 cbr 1000 ------- 2 1.0 3.1 74 87
r 0.695694 2 3 tcp 1040 ------- 1 0.0 3.0 6 77
+ 0.695694 3 2 ack 40 ------- 1 3.0 0.0 6 88
- 0.695694 3 2 ack 40 ------- 1 3.0 0.0 6 88
r 0.696682 3 2 ack 40 ------- 1 3.0 0.0 4 84
+ 0.696682 2 0 ack 40 ------- 1 3.0 0.0 4 84
- 0.696682 2 0 ack 40 ------- 1 3.0 0.0 4 84
r 0.698 1 2 cbr 1000 ------- 2 1.0 3.1 73 85
+ 0.698 2 3 cbr 1000 ------- 2 1.0 3.1 73 85
- 0.698 2 3 cbr 1000 ------- 2 1.0 3.1 73 85
+ 0.7 1 2 cbr 1000 ------- 2 1.0 3.1 75 89
- 0.7 1 2 cbr 1000 ------- 2 1.0 3.1 75 89
r 0.7004 2 3 cbr 1000 ------- 2 1.0 3.1 69 79
r 0.701948 2 0 ack 40 ------- 1 3.0 0.0 3 82
+ 0.701948 0 2 tcp 1040 ------- 1 0.0 3.0 7 90
- 0.701948 0 2 tcp 1040 ------- 1 0.0 3.0 7 90
+ 0.701948 0 2 tcp 1040 ------- 1 0.0 3.0 8 91
r 0.705106 2 3 cbr 1000 ------- 2 1.0 3.1 70 80
r 0.706 1 2 cbr 1000 ------- 2 1.0 3.1 74 87
+ 0.706 2 3 cbr 1000 ------- 2 1.0 3.1 74 87
- 0.706 2 3 cbr 1000 ------- 2 1.0 3.1 74 87
- 0.706108 0 2 tcp 1040 ------- 1 0.0 3.0 8 91
r 0.706282 3 2 ack 40 ------- 1 3.0 0.0 5 86
+ 0.706282 2 0 ack 40 ------- 1 3.0 0.0 5 86
- 0.706282 2 0 ack 40 ------- 1 3.0 0.0 5 86
r 0.706842 2 0 ack 40 ------- 1 3.0 0.0 4 84
+ 0.706842 0 2 tcp 1040 ------- 1 0.0 3.0 9 92
+ 0.706842 0 2 tcp 1040 ------- 1 0.0 3.0 10 93
+ 0.708 1 2 cbr 1000 ------- 2 1.0 3.1 76 94
- 0.708 1 2 cbr 1000 ------- 2 1.0 3.1 76 94
r 0.709812 2 3 cbr 1000 ------- 2 1.0 3.1 71 81
- 0.710268 0 2 tcp 1040 ------- 1 0.0 3.0 9 92
r 0.714 1 2 cbr 1000 ------- 2 1.0 3.1 75 89
+ 0.714 2 3 cbr 1000 ------- 2 1.0 3.1 75 89
- 0.714 2 3 cbr 1000 ------- 2 1.0 3.1 75 89
- 0.714428 0 2 tcp 1040 ------- 1 0.0 3.0 10 93
r 0.714706 2 3 cbr 1000 ------- 2 1.0 3.1 72 83
r 0.715882 3 2 ack 40 ------- 1 3.0 0.0 6 88
+ 0.715882 2 0 ack 40 ------- 1 3.0 0.0 6 88
- 0.715882 2 0 ack 40 ------- 1 3.0 0.0 6 88
+ 0.716 1 2 cbr 1000 ------- 2 1.0 3.1 77 95
- 0.716 1 2 cbr 1000 ------- 2 1.0 3.1 77 95
r 0.716108 0 2 tcp 1040 ------- 1 0.0 3.0 7 90
+ 0.716108 2 3 tcp 1040 ------- 1 0.0 3.0 7 90
r 0.716442 2 0 ack 40 ------- 1 3.0 0.0 5 86
+ 0.716442 0 2 tcp 1040 ------- 1 0.0 3.0 11 96
+ 0.716442 0 2 tcp 1040 ------- 1 0.0 3.0 12 97
- 0.718588 0 2 tcp 1040 ------- 1 0.0 3.0 11 96
- 0.718706 2 3 tcp 1040 ------- 1 0.0 3.0 7 90
r 0.720268 0 2 tcp 1040 ------- 1 0.0 3.0 8 91
+ 0.720268 2 3 tcp 1040 ------- 1 0.0 3.0 8 91
r 0.722 1 2 cbr 1000 ------- 2 1.0 3.1 76 94
+ 0.722 2 3 cbr 1000 ------- 2 1.0 3.1 76 94
r 0.722706 2 3 cbr 1000 ------- 2 1.0 3.1 73 85
- 0.722748 0 2 tcp 1040 ------- 1 0.0 3.0 12 97
- 0.7236 2 3 tcp 1040 ------- 1 0.0 3.0 8 91
+ 0.724 1 2 cbr 1000 ------- 2 1.0 3.1 78 98
- 0.724 1 2 cbr 1000 ------- 2 1.0 3.1 78 98
r 0.724428 0 2 tcp 1040 ------- 1 0.0 3.0 9 92
+ 0.724428 2 3 tcp 1040 ------- 1 0.0 3.0 9 92
r 0.726042 2 0 ack 40 ------- 1 3.0 0.0 6 88
+ 0.726042 0 2 tcp 1040 ------- 1 0.0 3.0 13 99
+ 0.726042 0 2 tcp 1040 ------- 1 0.0 3.0 14 100
- 0.726908 0 2 tcp 1040 ------- 1 0.0 3.0 13 99
- 0.728494 2 3 cbr 1000 ------- 2 1.0 3.1 76 94
r 0.728588 0 2 tcp 1040 ------- 1 0.0 3.0 10 93
+ 0.728588 2 3 tcp 1040 ------- 1 0.0 3.0 10 93
r 0.73 1 2 cbr 1000 ------- 2 1.0 3.1 77 95
+ 0.73 2 3 cbr 1000 ------- 2 1.0 3.1 77 95
r 0.730706 2 3 cbr 1000 ------- 2 1.0 3.1 74 87
- 0.731068 0 2 tcp 1040 ------- 1 0.0 3.0 14 100
+ 0.732 1 2 cbr 1000 ------- 2 1.0 3.1 79 101
- 0.732 1 2 cbr 1000 ------- 2 1.0 3.1 79 101
r 0.732748 0 2 tcp 1040 ------- 1 0.0 3.0 11 96
+ 0.732748 2 3 tcp 1040 ------- 1 0.0 3.0 11 96
- 0.7332 2 3 tcp 1040 ------- 1 0.0 3.0 9 92
r 0.736908 0 2 tcp 1040 ------- 1 0.0 3.0 12 97
+ 0.736908 2 3 tcp 1040 ------- 1 0.0 3.0 12 97
r 0.738 1 2 cbr 1000 ------- 2 1.0 3.1 78 98
+ 0.738 2 3 cbr 1000 ------- 2 1.0 3.1 78 98
- 0.738094 2 3 tcp 1040 ------- 1 0.0 3.0 10 93
r 0.738706 2 3 cbr 1000 ------- 2 1.0 3.1 75 89
+ 0.74 1 2 cbr 1000 ------- 2 1.0 3.1 80 102
- 0.74 1 2 cbr 1000 ------- 2 1.0 3.1 80 102
r 0.741068 0 2 tcp 1040 ------- 1 0.0 3.0 13 99
+ 0.741068 2 3 tcp 1040 ------- 1 0.0 3.0 13 99
- 0.742988 2 3 cbr 1000 ------- 2 1.0 3.1 77 95
r 0.7436 2 3 tcp 1040 ------- 1 0.0 3.0 7 90
+ 0.7436 3 2 ack 40 ------- 1 3.0 0.0 7 103
- 0.7436 3 2 ack 40 ------- 1 3.0 0.0 7 103
r 0.745228 0 2 tcp 1040 ------- 1 0.0 3.0 14 100
+ 0.745228 2 3 tcp 1040 ------- 1 0.0 3.0 14 100
r 0.746 1 2 cbr 1000 ------- 2 1.0 3.1 79 101
+ 0.746 2 3 cbr 1000 ------- 2 1.0 3.1 79 101
- 0.747694 2 3 tcp 1040 ------- 1 0.0 3.0 11 96
+ 0.748 1 2 cbr 1000 ------- 2 1.0 3.1 81 104
- 0.748 1 2 cbr 1000 ------- 2 1.0 3.1 81 104
r 0.748494 2 3 tcp 1040 ------- 1 0.0 3.0 8 91
+ 0.748494 3 2 ack 40 ------- 1 3.0 0.0 8 105
- 0.748494 3 2 ack 40 ------- 1 3.0 0.0 8 105
- 0.752588 2 3 tcp 1040 ------- 1 0.0 3.0 12 97
r 0.7532 2 3 cbr 1000 ------- 2 1.0 3.1 76 94
r 0.754 1 2 cbr 1000 ------- 2 1.0 3.1 80 102
+ 0.754 2 3 cbr 1000 ------- 2 1.0 3.1 80 102
+ 0.756 1 2 cbr 1000 ------- 2 1.0 3.1 82 106
- 0.756 1 2 cbr 1000 ------- 2 1.0 3.1 82 106
- 0.757482 2 3 cbr 1000 ------- 2 1.0 3.1 78 98
r 0.758094 2 3 tcp 1040 ------- 1 0.0 3.0 9 92
+ 0.758094 3 2 ack 40 ------- 1 3.0 0.0 9 107
- 0.758094 3 2 ack 40 ------- 1 3.0 0.0 9 107
r 0.762 1 2 cbr 1000 ------- 2 1.0 3.1 81 104
+ 0.762 2 3 cbr 1000 ------- 2 1.0 3.1 81 104
- 0.762188 2 3 tcp 1040 ------- 1 0.0 3.0 13 99
r 0.762988 2 3 tcp 1040 ------- 1 0.0 3.0 10 93
+ 0.762988 3 2 ack 40 ------- 1 3.0 0.0 10 108
- 0.762988 3 2 ack 40 ------- 1 3.0 0.0 10 108
r 0.763788 3 2 ack 40 ------- 1 3.0 0.0 7 103
+ 0.763788 2 0 ack 40 ------- 1 3.0 0.0 7 103
- 0.763788 2 0 ack 40 ------- 1 3.0 0.0 7 103
+ 0.764 1 2 cbr 1000 ------- 2 1.0 3.1 83 109
- 0.764 1 2 cbr 1000 ------- 2 1.0 3.1 83 109
- 0.767082 2 3 tcp 1040 ------- 1 0.0 3.0 14 100
r 0.767694 2 3 cbr 1000 ------- 2 1.0 3.1 77 95
r 0.768682 3 2 ack 40 ------- 1 3.0 0.0 8 105
+ 0.768682 2 0 ack 40 ------- 1 3.0 0.0 8 105
- 0.768682 2 0 ack 40 ------- 1 3.0 0.0 8 105
r 0.77 1 2 cbr 1000 ------- 2 1.0 3.1 82 106
+ 0.77 2 3 cbr 1000 ------- 2 1.0 3.1 82 106
- 0.771976 2 3 cbr 1000 ------- 2 1.0 3.1 79 101
+ 0.772 1 2 cbr 1000 ------- 2 1.0 3.1 84 110
- 0.772 1 2 cbr 1000 ------- 2 1.0 3.1 84 110
r 0.772588 2 3 tcp 1040 ------- 1 0.0 3.0 11 96
+ 0.772588 3 2 ack 40 ------- 1 3.0 0.0 11 111
- 0.772588 3 2 ack 40 ------- 1 3.0 0.0 11 111
r 0.773948 2 0 ack 40 ------- 1 3.0 0.0 7 103
+ 0.773948 0 2 tcp 1040 ------- 1 0.0 3.0 15 112
- 0.773948 0 2 tcp 1040 ------- 1 0.0 3.0 15 112
+ 0.773948 0 2 tcp 1040 ------- 1 0.0 3.0 16 113
- 0.776682 2 3 cbr 1000 ------- 2 1.0 3.1 80 102
r 0.777482 2 3 tcp 1040 ------- 1 0.0 3.0 12 97
+ 0.777482 3 2 ack 40 ------- 1 3.0 0.0 12 114
- 0.777482 3 2 ack 40 ------- 1 3.0 0.0 12 114
r 0.778 1 2 cbr 1000 ------- 2 1.0 3.1 83 109
+ 0.778 2 3 cbr 1000 ------- 2 1.0 3.1 83 109
- 0.778108 0 2 tcp 1040 ------- 1 0.0 3.0 16 113
r 0.778282 3 2 ack 40 ------- 1 3.0 0.0 9 107
+ 0.778282 2 0 ack 40 ------- 1 3.0 0.0 9 107
- 0.778282 2 0 ack 40 ------- 1 3.0 0.0 9 107
r 0.778842 2 0 ack 40 ------- 1 3.0 0.0 8 105
+ 0.778842 0 2 tcp 1040 ------- 1 0.0 3.0 17 115
+ 0.778842 0 2 tcp 1040 ------- 1 0.0 3.0 18 116
+ 0.78 1 2 cbr 1000 ------- 2 1.0 3.1 85 117
- 0.78 1 2 cbr 1000 ------- 2 1.0 3.1 85 117
- 0.781388 2 3 cbr 1000 ------- 2 1.0 3.1 81 104
r 0.782188 2 3 cbr 1000 ------- 2 1.0 3.1 78 98